 Gaussian 16, Revision C.01,
 Gaussian 16:  ES64L-G16RevC.01  3-Jul-2019

 ----------------------------
 # opt freq jun-cc-pvtz M062X
 ----------------------------

 ---------------------
 NH2-M062X-jun-cc-pVTZ
 ---------------------
 Symbolic Z-matrix:
 Charge =  0 Multiplicity = 2

 SCF Done:  E(UM062X) =  -55.8716797721     A.U. after   10 cycles
 SCF Done:  E(UM062X) =  -55.8717819242     A.U. after    8 cycles
 SCF Done:  E(UM062X) =  -55.8717845443     A.U. after    7 cycles
 Optimization completed.
    -- Stationary point found.
 Normal termination of Gaussian 16 at Thu Jul 15 11:38:09 2021.

 ----------------------------------------------------------------------
 #N Geom=AllCheck Guess=TCheck SCRF=Check GenChk UM062X/Jun-CC-pVTZ Fre
 q
 ----------------------------------------------------------------------

 Structure from the checkpoint file:  "NH2-M062X-jun-cc-pVTZ.chk"
 ---------------------
 NH2-M062X-jun-cc-pVTZ
 ---------------------
 Charge =  0 Multiplicity = 2

                         Standard orientation:
 ---------------------------------------------------------------------
 Center     Atomic      Atomic             Coordinates (Angstroms)
 Number     Number       Type             X           Y           Z
 ---------------------------------------------------------------------
      1          7           0        0.000000    0.000000    0.140951
      2          1           0       -0.000000    0.804549   -0.493327
      3          1           0       -0.000000   -0.804549   -0.493327
 ---------------------------------------------------------------------

 SCF Done:  E(UM062X) =  -55.8717845443     A.U. after    1 cycles

 The electronic state is 2-B1.
 Alpha  occ. eigenvalues --  -14.77876  -0.96388  -0.55025  -0.41137  -0.39021
 Alpha virt. eigenvalues --    0.03008   0.06574   0.08953   0.09690   0.17557
 Alpha virt. eigenvalues --    0.19118   0.34077   0.36354   0.37445   0.40026
 Alpha virt. eigenvalues --    0.40875   0.57450   0.59042   0.62446   0.67061

  Beta  occ. eigenvalues --  -14.76751  -0.90048  -0.53202  -0.37761
  Beta virt. eigenvalues --   -0.07140   0.02485   0.06548   0.09535   0.10913
  Beta virt. eigenvalues --    0.18003   0.19775   0.33507   0.33527   0.34799
  Beta virt. eigenvalues --    0.34896   0.39919   0.58330   0.60426   0.64055

 Mulliken charges and spin densities:
               1          2
     1  N   -0.490969   1.054407
     2  H    0.245484  -0.027204
     3  H    0.245484  -0.027204
 Sum of Mulliken charges =   0.00000   1.00000

 Dipole moment (field-independent basis, Debye):
    X=             -0.0000    Y=             -0.0000    Z=             -1.8161  Tot=              1.8161
 Quadrupole moment (field-independent basis, Debye-Ang):
   XX=             -7.3155   YY=             -5.5903   ZZ=             -7.7376
   XY=              0.0000   XZ=              0.0000   YZ=             -0.0000

  Exact polarizability:      10.439       0.000      12.377       0.000       0.000      12.297
 Approx polarizability:       9.707       0.000      12.850       0.000       0.000      12.279

                      1                      2                      3
                     A1                     A1                     B2
 Frequencies --   1530.8034              3403.9605              3495.8984
 Red. masses --      1.0914                 1.0500                 1.0903
 Frc consts  --      1.5069                 7.1682                 7.8510
 IR Inten    --     31.5912                 4.9560                 0.4384

 - Thermochemistry -
 -------------------
 Temperature   298.150 Kelvin.  Pressure   1.00000 Atm.
 Atom     1 has atomic number  7 and mass  14.00307

 Molecular mass:    16.01872 amu.
 Principal axes and moments of inertia in atomic units:
                           1         2         3
     Eigenvalues --     2.53144   4.65927   7.19070
           X            0.00000   0.00000   1.00000
           Y            1.00000   0.00000  -0.00000
           Z           -0.00000   1.00000   0.00000
 This molecule is an asymmetric top.
 Rotational symmetry number  2.
 Rotational temperatures (Kelvin)     34.21533    18.58961    12.04527
 Rotational constants (GHZ):         712.93171   387.34461   250.98264
 Zero-point vibrational energy      50426.6 (Joules/Mol)
                                   12.05224 (Kcal/Mol)
 Vibrational temperatures:   2202.48  4897.54  5029.82
          (Kelvin)

 Zero-point correction=                           0.019206 (Hartree/Particle)
 Thermal correction to Energy=                    0.022043
 Thermal correction to Enthalpy=                  0.022988
 Thermal correction to Gibbs Free Energy=         0.000901
 Sum of electronic and zero-point Energies=            -55.852578
 Sum of electronic and thermal Energies=               -55.849741
 Sum of electronic and thermal Enthalpies=             -55.848797
 Sum of electronic and thermal Free Energies=          -55.870883

                     E (Thermal)             CV                S
                      KCal/Mol        Cal/Mol-Kelvin    Cal/Mol-Kelvin
 Total                   13.832              6.029             46.484
 Electronic               0.000              0.000              1.377
 Translational            0.889              2.981             34.259
 Rotational               0.889              2.981             10.837
 Vibrational             12.055              0.067              0.010

 Optimization completed.
    -- Stationary point found.
 Normal termination of Gaussian 16 at Thu Jul 15 11:38:17 2021.
