 Gaussian 16, Revision C.01,
 Gaussian 16:  ES64L-G16RevC.01  3-Jul-2019

 ----------------------------
 # opt freq jun-cc-pvtz m062x
 ----------------------------

 ------------------
 NH3-opt-m062x-pvtz
 ------------------
 Symbolic Z-matrix:
 Charge =  0 Multiplicity = 1

 SCF Done:  E(RM062X) =  -56.5525741711     A.U. after    9 cycles
 SCF Done:  E(RM062X) =  -56.5527451471     A.U. after    8 cycles
 SCF Done:  E(RM062X) =  -56.5527512902     A.U. after    7 cycles
 SCF Done:  E(RM062X) =  -56.5527532437     A.U. after    7 cycles
 Optimization completed.
    -- Stationary point found.
 Normal termination of Gaussian 16 at Tue Jul 13 14:32:47 2021.

 ----------------------------------------------------------------------
 #N Geom=AllCheck Guess=TCheck SCRF=Check GenChk RM062X/Jun-CC-pVTZ Fre
 q
 ----------------------------------------------------------------------

 Structure from the checkpoint file:  "NH3-opt-M062X-pvtz.chk"
 ------------------
 NH3-opt-m062x-pvtz
 ------------------
 Charge =  0 Multiplicity = 1

                         Standard orientation:
 ---------------------------------------------------------------------
 Center     Atomic      Atomic             Coordinates (Angstroms)
 Number     Number       Type             X           Y           Z
 ---------------------------------------------------------------------
      1          1           0       -0.485819   -0.804686    0.262957
      2          7           0        0.000018   -0.000007   -0.112697
      3          1           0        0.939759   -0.018314    0.263045
      4          1           0       -0.454068    0.823051    0.262876
 ---------------------------------------------------------------------

 SCF Done:  E(RM062X) =  -56.5527532437     A.U. after    1 cycles

 The electronic state is 1-A.
 Alpha  occ. eigenvalues --  -14.72452  -0.95738  -0.53292  -0.53290  -0.34104
 Alpha virt. eigenvalues --    0.02516   0.06293   0.06294   0.09961   0.18463
 Alpha virt. eigenvalues --    0.18464   0.21370   0.33309   0.33309   0.36712
 Alpha virt. eigenvalues --    0.38957   0.38957   0.57982   0.57983   0.64010

 Mulliken charges:
               1
     1  H    0.221208
     2  N   -0.663628
     3  H    0.221211
     4  H    0.221209
 Sum of Mulliken charges =  -0.00000

 Dipole moment (field-independent basis, Debye):
    X=             -0.0002    Y=              0.0001    Z=              1.5462  Tot=              1.5462
 Quadrupole moment (field-independent basis, Debye-Ang):
   XX=             -6.3251   YY=             -6.3254   ZZ=             -9.4325
   XY=              0.0000   XZ=              0.0003   YZ=             -0.0002

  Exact polarizability:      12.939       0.000      12.939       0.000      -0.000      14.106
 Approx polarizability:      13.883       0.000      13.883      -0.000       0.000      13.936

                      1                      2                      3
                      A                      A                      A
 Frequencies --   1036.5662              1659.5089              1660.0959
 Red. masses --      1.1812                 1.0665                 1.0665
 Frc consts  --      0.7478                 1.7304                 1.7317
 IR Inten    --    153.0251                17.6936                17.7571

                      4                      5                      6
                      A                      A                      A
 Frequencies --   3509.0839              3636.5290              3637.2060
 Red. masses --      1.0263                 1.0901                 1.0902
 Frc consts  --      7.4461                 8.4940                 8.4973
 IR Inten    --      1.1464                 9.9793                 9.7552

 - Thermochemistry -
 -------------------
 Temperature   298.150 Kelvin.  Pressure   1.00000 Atm.
 Atom     1 has atomic number  1 and mass   1.00783

 Molecular mass:    17.02655 amu.
 Principal axes and moments of inertia in atomic units:
                           1         2         3
     Eigenvalues --     6.02273   6.02301   9.53958
           X            1.00000   0.00000  -0.00006
           Y           -0.00000   1.00000   0.00005
           Z            0.00006  -0.00005   1.00000
 This molecule is an asymmetric top.
 Rotational symmetry number  1.
 Rotational temperatures (Kelvin)     14.38117    14.38050     9.07943
 Rotational constants (GHZ):         299.65490   299.64088   189.18463
 Zero-point vibrational energy      90551.3 (Joules/Mol)
                                   21.64227 (Kcal/Mol)
 Vibrational temperatures:   1491.39  2387.66  2388.51  5048.79  5232.15
          (Kelvin)           5233.13

 Zero-point correction=                           0.034489 (Hartree/Particle)
 Thermal correction to Energy=                    0.037359
 Thermal correction to Enthalpy=                  0.038303
 Thermal correction to Gibbs Free Energy=         0.015427
 Sum of electronic and zero-point Energies=            -56.518264
 Sum of electronic and thermal Energies=               -56.515395
 Sum of electronic and thermal Enthalpies=             -56.514450
 Sum of electronic and thermal Free Energies=          -56.537326

                     E (Thermal)             CV                S
                      KCal/Mol        Cal/Mol-Kelvin    Cal/Mol-Kelvin
 Total                   23.443              6.385             48.145
 Electronic               0.000              0.000              0.000
 Translational            0.889              2.981             34.441
 Rotational               0.889              2.981             13.612
 Vibrational             21.665              0.424              0.093

 Optimization completed.
    -- Stationary point found.
 Normal termination of Gaussian 16 at Tue Jul 13 14:32:56 2021.
