 Gaussian 16, Revision C.01,
 Gaussian 16:  ES64L-G16RevC.01  3-Jul-2019

 -------------------------
 #P freq M062X/jun-cc-pVTZ
 -------------------------

 ---------------------
 Generated by Multiwfn
 ---------------------
 Symbolic Z-matrix:
 Charge =  0 Multiplicity = 2

                         Standard orientation:
 ---------------------------------------------------------------------
 Center     Atomic      Atomic             Coordinates (Angstroms)
 Number     Number       Type             X           Y           Z
 ---------------------------------------------------------------------
      1          6           0       -1.878721   -0.171473   -0.095302
      2          1           0       -1.934763   -0.598829   -1.096364
      3          1           0       -2.023925   -0.980856    0.621277
      4          1           0       -2.700511    0.533002    0.024688
      5          6           0       -0.530832    0.504629    0.126619
      6          1           0       -0.406915    1.323957   -0.590572
      7          1           0       -0.517157    0.976593    1.119645
      8          6           0        0.603408   -0.448232   -0.015393
      9          1           0        0.501183   -1.448307    0.386017
     10          7           0        1.896239    0.074992    0.018731
     11          1           0        2.013616    0.938893   -0.491284
     12          1           0        2.631669   -0.578945   -0.200065
 ---------------------------------------------------------------------

 SCF Done:  E(UM062X) =  -173.808238087     A.U. after   14 cycles

 The electronic state is 2-A.
 Alpha  occ. eigenvalues --  -14.74965 -10.54841 -10.53068 -10.51995  -1.01309
 Alpha  occ. eigenvalues --   -0.86852  -0.74428  -0.66657  -0.58292  -0.53590
 Alpha  occ. eigenvalues --   -0.51795  -0.46129  -0.43083  -0.41769  -0.40438
 Alpha  occ. eigenvalues --   -0.38471  -0.19550
 Alpha virt. eigenvalues --    0.00795   0.01580   0.01905   0.03370   0.04762
 Alpha virt. eigenvalues --    0.05489   0.06630   0.06713   0.07435   0.08787
 Alpha virt. eigenvalues --    0.09979   0.12078   0.13924   0.14358   0.15239

  Beta  occ. eigenvalues --  -14.74696 -10.54148 -10.53113 -10.51983  -0.99942
  Beta  occ. eigenvalues --   -0.86328  -0.73267  -0.65284  -0.57703  -0.52577
  Beta  occ. eigenvalues --   -0.50799  -0.45568  -0.41868  -0.40979  -0.39831
  Beta  occ. eigenvalues --   -0.35451
  Beta virt. eigenvalues --    0.00160   0.01300   0.02021   0.02379   0.03461
  Beta virt. eigenvalues --    0.04983   0.05625   0.06665   0.06853   0.08109
  Beta virt. eigenvalues --    0.08851   0.10062   0.12406   0.14089   0.14355

 Mulliken charges and spin densities:
               1          2
     1  C   -0.675139   0.042600
     2  H    0.206831  -0.016147
     3  H    0.211619  -0.004209
     4  H    0.215371  -0.002423
     5  C   -0.387999  -0.075716
     6  H    0.244274   0.016908
     7  H    0.247115   0.035036
     8  C   -0.295549   0.923454
     9  H    0.228166  -0.052292
    10  N   -0.462946   0.134770
    11  H    0.229550   0.001265
    12  H    0.238706  -0.003246
 Sum of Mulliken charges =  -0.00000   1.00000

 Dipole moment (field-independent basis, Debye):
    X=              0.6490    Y=              0.1954    Z=             -0.5614  Tot=              0.8801
 Quadrupole moment (field-independent basis, Debye-Ang):
   XX=            -24.3609   YY=            -25.8557   ZZ=            -28.8039
   XY=             -0.7017   XZ=             -2.4386   YZ=             -1.5848

  Exact polarizability:      60.690       1.770      47.895       0.404       1.706      43.878
 Approx polarizability:      58.418       1.114      55.474      -0.090       0.861      51.682

                      1                      2                      3
                      A                      A                      A
 Frequencies --     96.8119               231.3727               270.4642
 Red. masses --      2.2354                 1.0751                 2.4493
 Frc consts  --      0.0123                 0.0339                 0.1056
 IR Inten    --      1.1803                 1.4558                 1.7890

                      4                      5                      6
                      A                      A                      A
 Frequencies --    322.2294               455.7867               582.6921
 Red. masses --      1.1525                 3.1984                 1.1813
 Frc consts  --      0.0705                 0.3915                 0.2363
 IR Inten    --     23.6898                11.2982                54.9870

                      7                      8                      9
                      A                      A                      A
 Frequencies --    673.7801               794.7313               890.3948
 Red. masses --      1.2905                 1.1795                 1.8260
 Frc consts  --      0.3452                 0.4389                 0.8529
 IR Inten    --    181.9112                 3.1952                 1.0896

                     10                     11                     12
                      A                      A                      A
 Frequencies --   1034.4260              1063.9223              1087.2894
 Red. masses --      1.2053                 2.2771                 1.6120
 Frc consts  --      0.7599                 1.5187                 1.1228
 IR Inten    --      3.0803                 0.7019                 0.3623

                     13                     14                     15
                      A                      A                      A
 Frequencies --   1210.6233              1254.4521              1278.0653
 Red. masses --      1.6085                 2.3347                 1.2082
 Frc consts  --      1.3890                 2.1646                 1.1628
 IR Inten    --      6.1279                27.6282                 2.8204

                     16                     17                     18
                      A                      A                      A
 Frequencies --   1347.5777              1412.1041              1458.5192
 Red. masses --      1.3762                 1.2731                 1.8693
 Frc consts  --      1.4725                 1.4958                 2.3429
 IR Inten    --      3.9423                 2.8194                16.4874

                     19                     20                     21
                      A                      A                      A
 Frequencies --   1487.7818              1500.1187              1511.0808
 Red. masses --      1.0784                 1.0394                 1.0965
 Frc consts  --      1.4064                 1.3781                 1.4752
 IR Inten    --      0.2802                 7.2053                 6.4072

                     22                     23                     24
                      A                      A                      A
 Frequencies --   1639.5162              2977.8102              3030.5352
 Red. masses --      1.1464                 1.0707                 1.0870
 Frc consts  --      1.8156                 5.5937                 5.8818
 IR Inten    --     53.4263                47.6497                25.1010

                     25                     26                     27
                      A                      A                      A
 Frequencies --   3063.1615              3128.8718              3139.5460
 Red. masses --      1.0354                 1.1021                 1.1023
 Frc consts  --      5.7239                 6.3566                 6.4018
 IR Inten    --     25.8127                27.1375                24.1969

                     28                     29                     30
                      A                      A                      A
 Frequencies --   3186.7022              3557.4170              3665.3034
 Red. masses --      1.0881                 1.0482                 1.0972
 Frc consts  --      6.5106                 7.8160                 8.6846
 IR Inten    --     17.9815                 9.4939                19.3241

 - Thermochemistry -
 -------------------
 Temperature   298.150 Kelvin.  Pressure   1.00000 Atm.
 Atom     1 has atomic number  6 and mass  12.00000

 Molecular mass:    58.06567 amu.
 Principal axes and moments of inertia in atomic units:
                           1         2         3
     Eigenvalues --    62.61728 468.85158 503.45059
           X            0.99997   0.00215  -0.00699
           Y           -0.00253   0.99849  -0.05490
           Z            0.00686   0.05492   0.99847
 This molecule is an asymmetric top.
 Rotational symmetry number  1.
 Rotational temperatures (Kelvin)      1.38323     0.18474     0.17204
 Rotational constants (GHZ):          28.82178     3.84928     3.58474
 Zero-point vibrational energy     283234.4 (Joules/Mol)
                                   67.69464 (Kcal/Mol)
 Warning -- explicit consideration of   6 degrees of freedom as
           vibrations may cause significant error
 Vibrational temperatures:    139.29   332.89   389.14   463.62   655.78
          (Kelvin)            838.36   969.42  1143.44  1281.08  1488.31
                             1530.75  1564.37  1741.82  1804.88  1838.85
                             1938.86  2031.70  2098.48  2140.59  2158.34
                             2174.11  2358.90  4284.40  4360.26  4407.21
                             4501.75  4517.11  4584.95  5118.33  5273.55

 Zero-point correction=                           0.107878 (Hartree/Particle)
 Thermal correction to Energy=                    0.113673
 Thermal correction to Enthalpy=                  0.114617
 Thermal correction to Gibbs Free Energy=         0.079300
 Sum of electronic and zero-point Energies=           -173.700360
 Sum of electronic and thermal Energies=              -173.694565
 Sum of electronic and thermal Enthalpies=            -173.693621
 Sum of electronic and thermal Free Energies=         -173.728938

                     E (Thermal)             CV                S
                      KCal/Mol        Cal/Mol-Kelvin    Cal/Mol-Kelvin
 Total                   71.331             19.594             74.330
 Electronic               0.000              0.000              1.377
 Translational            0.889              2.981             38.098
 Rotational               0.889              2.981             24.206
 Vibrational             69.553             13.632             10.649
 Vibration     1          0.603              1.951              3.518
 Vibration     2          0.653              1.793              1.868
 Vibration     3          0.674              1.728              1.593
 Vibration     4          0.707              1.631              1.299
 Vibration     5          0.814              1.348              0.778
 Vibration     6          0.940              1.069              0.480

 Optimization completed.
    -- Stationary point found.

 1\1\GINC-A26\Freq\UM062X\Jun-CC-pVTZ\C3H8N1(2)\SHANGYL\09-Jul-2021\0\\
 #P freq M062X/jun-cc-pVTZ\\Generated by Multiwfn\\0,2\C,1.878721,-0.17
 1473,0.095302\H,1.934763,-0.598829,1.096364\H,2.023925,-0.980856,-0.62
 1277\H,2.700511,0.533002,-0.024688\C,0.530832,0.504629,-0.126619\H,0.4
 06915,1.323957,0.590572\H,0.517157,0.976593,-1.119645\C,-0.603408,-0.4
 48232,0.015393\H,-0.501183,-1.448307,-0.386017\N,-1.896239,0.074992,-0
 .018731\H,-2.013616,0.938893,0.491284\H,-2.631669,-0.578945,0.200065\\
 Version=ES64L-G16RevC.01\State=2-A\HF=-173.8082381\S2=0.754586\S2-1=0.

 Normal termination of Gaussian 16 at Fri Jul  9 11:13:46 2021.
