 Gaussian 16, Revision C.01,
 Gaussian 16:  ES64L-G16RevC.01  3-Jul-2019

 ------------------------
 # freq jun-cc-pvtz m062x
 ------------------------

 -------
 s000001
 -------
 Symbolic Z-matrix:
 Charge =  0 Multiplicity = 1

                         Standard orientation:
 ---------------------------------------------------------------------
 Center     Atomic      Atomic             Coordinates (Angstroms)
 Number     Number       Type             X           Y           Z
 ---------------------------------------------------------------------
      1          6           0        1.912230   -0.116144    0.000003
      2          1           0        2.045441   -0.746651   -0.880389
      3          1           0        2.045462   -0.746494    0.880504
      4          1           0        2.705981    0.629636   -0.000073
      5          6           0        0.532363    0.529313   -0.000037
      6          1           0        0.419347    1.173336    0.876344
      7          1           0        0.419346    1.173227   -0.876498
      8          6           0       -0.587649   -0.507025    0.000029
      9          1           0       -0.479342   -1.154300    0.873567
     10          1           0       -0.479355   -1.154394   -0.873442
     11          7           0       -1.946533    0.024073    0.000009
     12          1           0       -2.096401    0.610175    0.812445
     13          1           0       -2.096412    0.610091   -0.812485
 ---------------------------------------------------------------------

 SCF Done:  E(RM062X) =  -174.462500910     A.U. after   12 cycles

 The electronic state is 1-A.
 Alpha  occ. eigenvalues --  -14.72324 -10.55445 -10.52984 -10.52492  -0.98800
 Alpha  occ. eigenvalues --   -0.86797  -0.74999  -0.67484  -0.57569  -0.51755
 Alpha  occ. eigenvalues --   -0.51137  -0.47346  -0.43614  -0.43149  -0.40738
 Alpha  occ. eigenvalues --   -0.39004  -0.30396
 Alpha virt. eigenvalues --    0.00827   0.01434   0.02303   0.02376   0.04779
 Alpha virt. eigenvalues --    0.05655   0.05787   0.06128   0.06189   0.08835
 Alpha virt. eigenvalues --    0.10191   0.10843   0.13551   0.14718   0.15163

 Mulliken charges:
               1
     1  C   -0.653991
     2  H    0.208524
     3  H    0.208524
     4  H    0.219224
     5  C   -0.431033
     6  H    0.240307
     7  H    0.240308
     8  C   -0.407850
     9  H    0.231620
    10  H    0.231620
    11  N   -0.545783
    12  H    0.229264
    13  H    0.229264
 Sum of Mulliken charges =  -0.00000

 Dipole moment (field-independent basis, Debye):
    X=              0.9452    Y=              1.0393    Z=             -0.0001  Tot=              1.4048
 Quadrupole moment (field-independent basis, Debye-Ang):
   XX=            -31.7770   YY=            -27.7979   ZZ=            -25.8528
   XY=             -3.0804   XZ=              0.0002   YZ=              0.0001

  Exact polarizability:      56.787      -0.984      46.906      -0.000      -0.000      43.944
 Approx polarizability:      55.721      -1.274      55.037       0.000      -0.000      54.441

                      1                      2                      3
                      A                      A                      A
 Frequencies --    131.1410               227.7585               267.4389
 Red. masses --      1.9360                 1.1093                 1.0989
 Frc consts  --      0.0196                 0.0339                 0.0463
 IR Inten    --      0.2711                11.3837                32.4331

                      4                      5                      6
                      A                      A                      A
 Frequencies --    269.0810               451.7149               743.3643
 Red. masses --      2.4939                 2.8597                 1.0771
 Frc consts  --      0.1064                 0.3438                 0.3507
 IR Inten    --      3.8485                 3.0423                 2.1092

                      7                      8                      9
                      A                      A                      A
 Frequencies --    836.4920               859.1533               915.9782
 Red. masses --      1.6056                 1.1454                 1.4646
 Frc consts  --      0.6619                 0.4981                 0.7240
 IR Inten    --    117.8603                 1.0044                64.6780

                     10                     11                     12
                      A                      A                      A
 Frequencies --   1032.3292              1052.2763              1113.9536
 Red. masses --      1.0993                 3.0250                 2.7390
 Frc consts  --      0.6903                 1.9735                 2.0026
 IR Inten    --      0.0320                 0.3023                20.1643

                     13                     14                     15
                      A                      A                      A
 Frequencies --   1147.1678              1242.0604              1324.4965
 Red. masses --      2.4803                 1.5173                 1.1638
 Frc consts  --      1.9232                 1.3792                 1.2029
 IR Inten    --      2.9081                 0.0150                 0.4377

                     16                     17                     18
                      A                      A                      A
 Frequencies --   1326.7356              1384.9254              1402.4916
 Red. masses --      1.3335                 1.1664                 1.4834
 Frc consts  --      1.3830                 1.3181                 1.7191
 IR Inten    --      4.7935                 0.1011                 5.9459

                     19                     20                     21
                      A                      A                      A
 Frequencies --   1412.2683              1488.2595              1499.7973
 Red. masses --      1.2487                 1.0698                 1.0661
 Frc consts  --      1.4674                 1.3961                 1.4129
 IR Inten    --      3.7407                 0.0002                 0.7577

                     22                     23                     24
                      A                      A                      A
 Frequencies --   1505.5133              1513.3968              1654.7659
 Red. masses --      1.0389                 1.0852                 1.0922
 Frc consts  --      1.3874                 1.4644                 1.7620
 IR Inten    --      7.5318                 6.8923                26.0790

                     25                     26                     27
                      A                      A                      A
 Frequencies --   3042.2692              3054.4928              3059.2308
 Red. masses --      1.0590                 1.0561                 1.0395
 Frc consts  --      5.7747                 5.8052                 5.7319
 IR Inten    --      5.8140                28.2168                50.8872

                     28                     29                     30
                      A                      A                      A
 Frequencies --   3069.9431              3096.7953              3124.0125
 Red. masses --      1.1024                 1.1066                 1.1028
 Frc consts  --      6.1211                 6.2529                 6.3413
 IR Inten    --      0.6011                27.1490                45.6955

                     31                     32                     33
                      A                      A                      A
 Frequencies --   3135.4867              3522.9032              3604.2221
 Red. masses --      1.1014                 1.0493                 1.0931
 Frc consts  --      6.3795                 7.6729                 8.3661
 IR Inten    --     25.0469                 1.0851                 3.5767

 - Thermochemistry -
 -------------------
 Temperature   298.150 Kelvin.  Pressure   1.00000 Atm.
 Atom     1 has atomic number  6 and mass  12.00000

 Molecular mass:    59.07350 amu.
 Principal axes and moments of inertia in atomic units:
                           1         2         3
     Eigenvalues --    72.49235 485.21676 515.00458
           X            0.99988  -0.01546   0.00000
           Y            0.01546   0.99988   0.00006
           Z           -0.00000  -0.00006   1.00000
 This molecule is an asymmetric top.
 Rotational symmetry number  1.
 Rotational temperatures (Kelvin)      1.19480     0.17851     0.16818
 Rotational constants (GHZ):          24.89561     3.71945     3.50432
 Zero-point vibrational energy     320072.3 (Joules/Mol)
                                   76.49912 (Kcal/Mol)
 Warning -- explicit consideration of   5 degrees of freedom as
           vibrations may cause significant error
 Vibrational temperatures:    188.68   327.69   384.78   387.15   649.92
          (Kelvin)           1069.54  1203.53  1236.13  1317.89  1485.29
                             1513.99  1602.73  1650.52  1787.05  1905.66
                             1908.88  1992.60  2017.87  2031.94  2141.27
                             2157.87  2166.10  2177.44  2380.84  4377.15
                             4394.73  4401.55  4416.96  4455.60  4494.76
                             4511.27  5068.67  5185.67

 Zero-point correction=                           0.121909 (Hartree/Particle)
 Thermal correction to Energy=                    0.127586
 Thermal correction to Enthalpy=                  0.128530
 Thermal correction to Gibbs Free Energy=         0.094045
 Sum of electronic and zero-point Energies=           -174.340592
 Sum of electronic and thermal Energies=              -174.334915
 Sum of electronic and thermal Enthalpies=            -174.333970
 Sum of electronic and thermal Free Energies=         -174.368456

                     E (Thermal)             CV                S
                      KCal/Mol        Cal/Mol-Kelvin    Cal/Mol-Kelvin
 Total                   80.062             19.168             72.581
 Electronic               0.000              0.000              0.000
 Translational            0.889              2.981             38.149
 Rotational               0.889              2.981             24.408
 Vibrational             78.284             13.206             10.023
 Vibration     1          0.612              1.922              2.929
 Vibration     2          0.651              1.799              1.897
 Vibration     3          0.673              1.733              1.613
 Vibration     4          0.673              1.730              1.602
 Vibration     5          0.810              1.357              0.791

 Optimization completed.
    -- Stationary point found.
 Normal termination of Gaussian 16 at Tue Jun 15 11:14:16 2021.
