 Gaussian 16, Revision C.01,
 Gaussian 16:  ES64L-G16RevC.01  3-Jul-2019

 -------------------------
 #P freq m062x/jun-cc-pvtz
 -------------------------

 ---------------------
 Generated by Multiwfn
 ---------------------
 Symbolic Z-matrix:
 Charge =  0 Multiplicity = 2

                         Standard orientation:
 ---------------------------------------------------------------------
 Center     Atomic      Atomic             Coordinates (Angstroms)
 Number     Number       Type             X           Y           Z
 ---------------------------------------------------------------------
      1          6           0       -2.005366    0.348729    0.130176
      2          1           0       -1.659477    1.378262    0.028144
      3          1           0       -2.933017    0.249395   -0.431228
      4          1           0       -2.232001    0.178250    1.183450
      5          6           0       -0.952365   -0.635195   -0.361094
      6          1           0       -0.756273   -0.474359   -1.425692
      7          1           0       -1.316920   -1.660702   -0.264195
      8          6           0        0.350142   -0.512929    0.399502
      9          1           0        0.764328    0.605767    0.224033
     10          1           0        0.197379   -0.585947    1.478223
     11          7           0        1.332402   -1.463341   -0.023124
     12          1           0        2.207635   -1.353888    0.471133
     13          1           0        1.519733   -1.389634   -1.015367
     14          7           0        1.286645    1.931413   -0.128278
     15          1           0        0.904875    2.438594    0.675513
     16          1           0        0.615944    2.134132   -0.875698
 ---------------------------------------------------------------------

 SCF Done:  E(UM062X) =  -230.328044618     A.U. after   16 cycles

 The electronic state is 2-A.
 Alpha  occ. eigenvalues --  -14.74258 -14.74111 -10.56788 -10.53827 -10.53013
 Alpha  occ. eigenvalues --   -1.00951  -0.94045  -0.87690  -0.75893  -0.67982
 Alpha  occ. eigenvalues --   -0.57705  -0.55618  -0.52977  -0.52276  -0.49387
 Alpha  occ. eigenvalues --   -0.46067  -0.42708  -0.41435  -0.40442  -0.38019
 Alpha  occ. eigenvalues --   -0.36227  -0.26300
 Alpha virt. eigenvalues --    0.00611   0.01251   0.01492   0.02155   0.04226
 Alpha virt. eigenvalues --    0.04980   0.05415   0.05954   0.06174   0.08565
 Alpha virt. eigenvalues --    0.09488   0.09972   0.10082   0.10954   0.12068

  Beta  occ. eigenvalues --  -14.73982 -14.73355 -10.56446 -10.53832 -10.53014
  Beta  occ. eigenvalues --   -1.00298  -0.90391  -0.87369  -0.75234  -0.67240
  Beta  occ. eigenvalues --   -0.57166  -0.54156  -0.52621  -0.50822  -0.47996
  Beta  occ. eigenvalues --   -0.45514  -0.42515  -0.40563  -0.40112  -0.35508
  Beta  occ. eigenvalues --   -0.30762
  Beta virt. eigenvalues --   -0.05736   0.00687   0.01290   0.01612   0.02281
  Beta virt. eigenvalues --    0.04292   0.05053   0.05670   0.06078   0.06195
  Beta virt. eigenvalues --    0.08542   0.09592   0.10113   0.10373   0.11067

 Mulliken charges and spin densities:
               1          2
     1  C   -0.668962  -0.003116
     2  H    0.206484   0.003209
     3  H    0.223737   0.000771
     4  H    0.214601  -0.000947
     5  C   -0.493162  -0.005038
     6  H    0.272002   0.005125
     7  H    0.258561   0.013711
     8  C   -0.356504   0.294334
     9  H    0.287775  -0.022878
    10  H    0.257381  -0.013598
    11  N   -0.543899   0.077091
    12  H    0.249820  -0.000837
    13  H    0.239212  -0.000692
    14  N   -0.621318   0.733986
    15  H    0.235912  -0.040809
    16  H    0.238360  -0.040313
 Sum of Mulliken charges =  -0.00000   1.00000

 Dipole moment (field-independent basis, Debye):
    X=             -1.2423    Y=              0.0755    Z=              0.0374  Tot=              1.2451
 Quadrupole moment (field-independent basis, Debye-Ang):
   XX=            -36.4316   YY=            -38.4272   ZZ=            -31.8391
   XY=             -3.8211   XZ=              0.8076   YZ=              1.1730

  Exact polarizability:      68.837       5.506      97.989      -1.222      -1.963      55.092
 Approx polarizability:      71.058       4.254      97.554      -1.024      -2.061      68.576

 ******    1 imaginary frequencies (negative Signs) ******

                      1                      2                      3
                      A                      A                      A
 Frequencies --   -949.1267                65.3178               101.3123
 Red. masses --      1.3689                 1.3030                 1.8464
 Frc consts  --      0.7266                 0.0033                 0.0112
 IR Inten    --   1852.9542                36.8167                 2.7172

                      4                      5                      6
                      A                      A                      A
 Frequencies --    105.5290               154.5472               231.2704
 Red. masses --      1.8009                 2.3094                 1.1179
 Frc consts  --      0.0118                 0.0325                 0.0352
 IR Inten    --     15.7314                14.3516                 4.2722

                      7                      8                      9
                      A                      A                      A
 Frequencies --    269.5272               301.4651               450.6920
 Red. masses --      1.6255                 1.4055                 2.7923
 Frc consts  --      0.0696                 0.0753                 0.3342
 IR Inten    --      3.8070                32.2158                17.4978

                     10                     11                     12
                      A                      A                      A
 Frequencies --    594.6715               614.5848               787.2644
 Red. masses --      1.4155                 1.1713                 1.1706
 Frc consts  --      0.2949                 0.2607                 0.4275
 IR Inten    --     73.6953                 2.9334                74.1134

                     13                     14                     15
                      A                      A                      A
 Frequencies --    814.9196               859.2466               896.7225
 Red. masses --      1.2685                 1.6429                 1.9495
 Frc consts  --      0.4963                 0.7146                 0.9236
 IR Inten    --    248.3653               296.2207               182.5211

                     16                     17                     18
                      A                      A                      A
 Frequencies --    991.1744              1043.3144              1069.1975
 Red. masses --      1.1477                 1.3615                 2.2976
 Frc consts  --      0.6643                 0.8732                 1.5475
 IR Inten    --    136.0220                 8.6838                 0.5761

                     19                     20                     21
                      A                      A                      A
 Frequencies --   1170.0183              1209.0665              1237.4329
 Red. masses --      1.7768                 2.0441                 1.6458
 Frc consts  --      1.4331                 1.7606                 1.4848
 IR Inten    --     10.9550                27.4316                 4.0607

                     22                     23                     24
                      A                      A                      A
 Frequencies --   1300.4107              1336.2600              1352.9416
 Red. masses --      1.1654                 1.0938                 1.3799
 Frc consts  --      1.1611                 1.1507                 1.4881
 IR Inten    --      1.1748                65.9589                 0.2464

                     25                     26                     27
                      A                      A                      A
 Frequencies --   1415.3509              1434.0615              1465.9977
 Red. masses --      1.2929                 1.4921                 1.0876
 Frc consts  --      1.5260                 1.8079                 1.3772
 IR Inten    --      2.4836                15.2892                 1.2054

                     28                     29                     30
                      A                      A                      A
 Frequencies --   1490.7976              1503.3774              1510.5628
 Red. masses --      1.0682                 1.0391                 1.0725
 Frc consts  --      1.3988                 1.3837                 1.4419
 IR Inten    --      2.1013                 7.3793                 4.7054

                     31                     32                     33
                      A                      A                      A
 Frequencies --   1531.9984              1652.8087              3042.3220
 Red. masses --      1.0839                 1.1056                 1.0628
 Frc consts  --      1.4989                 1.7795                 5.7958
 IR Inten    --     22.4372                36.9676                18.7658

                     34                     35                     36
                      A                      A                      A
 Frequencies --   3061.6003              3075.8942              3088.1515
 Red. masses --      1.0364                 1.0895                 1.0932
 Frc consts  --      5.7236                 6.0732                 6.1423
 IR Inten    --     19.2970                14.6093                23.1638

                     37                     38                     39
                      A                      A                      A
 Frequencies --   3126.6192              3138.9734              3408.6385
 Red. masses --      1.1023                 1.1013                 1.0500
 Frc consts  --      6.3491                 6.3936                 7.1881
 IR Inten    --     29.6462                22.7819                13.2865

                     40                     41                     42
                      A                      A                      A
 Frequencies --   3501.5540              3539.2814              3627.8545
 Red. masses --      1.0899                 1.0494                 1.0943
 Frc consts  --      7.8737                 7.7453                 8.4853
 IR Inten    --      0.2631                 8.5429                11.5778

 - Thermochemistry -
 -------------------
 Temperature   298.150 Kelvin.  Pressure   1.00000 Atm.
 Atom     1 has atomic number  6 and mass  12.00000

 Molecular mass:    75.09222 amu.
 Principal axes and moments of inertia in atomic units:
                           1         2         3
     Eigenvalues --   442.67513 532.03682 886.31785
           X            0.99630  -0.08592   0.00008
           Y            0.08592   0.99624   0.01078
           Z           -0.00101  -0.01073   0.99994
 This molecule is an asymmetric top.
 Rotational symmetry number  1.
 Warning -- assumption of classical behavior for rotation
           may cause significant error
 Rotational temperatures (Kelvin)      0.19566     0.16280     0.09772
 Rotational constants (GHZ):           4.07690     3.39214     2.03622
    1 imaginary frequencies ignored.
 Zero-point vibrational energy     368286.7 (Joules/Mol)
                                   88.02264 (Kcal/Mol)
 Warning -- explicit consideration of  10 degrees of freedom as
           vibrations may cause significant error
 Vibrational temperatures:     93.98   145.77   151.83   222.36   332.75
          (Kelvin)            387.79   433.74   648.45   855.60   884.25
                             1132.70  1172.49  1236.26  1290.18  1426.08
                             1501.10  1538.34  1683.40  1739.58  1780.39
                             1871.00  1922.58  1946.58  2036.37  2063.29
                             2109.24  2144.93  2163.02  2173.36  2204.20
                             2378.02  4377.22  4404.96  4425.53  4443.16
                             4498.51  4516.28  4904.27  5037.96  5092.24
                             5219.67

 Zero-point correction=                           0.140273 (Hartree/Particle)
 Thermal correction to Energy=                    0.148461
 Thermal correction to Enthalpy=                  0.149405
 Thermal correction to Gibbs Free Energy=         0.107321
 Sum of electronic and zero-point Energies=           -230.187772
 Sum of electronic and thermal Energies=              -230.179583
 Sum of electronic and thermal Enthalpies=            -230.178639
 Sum of electronic and thermal Free Energies=         -230.220724

                     E (Thermal)             CV                S
                      KCal/Mol        Cal/Mol-Kelvin    Cal/Mol-Kelvin
 Total                   93.161             27.330             88.574
 Electronic               0.000              0.000              1.377
 Translational            0.889              2.981             38.864
 Rotational               0.889              2.981             26.837
 Vibrational             91.383             21.369             21.496
 Vibration     1          0.597              1.971              4.290
 Vibration     2          0.604              1.948              3.429
 Vibration     3          0.605              1.945              3.350
 Vibration     4          0.620              1.898              2.615
 Vibration     5          0.653              1.793              1.869
 Vibration     6          0.674              1.729              1.599
 Vibration     7          0.693              1.671              1.409
 Vibration     8          0.809              1.359              0.794
 Vibration     9          0.952              1.043              0.459
 Vibration    10          0.974              1.001              0.425

 Optimization completed.
    -- Stationary point found.
 Normal termination of Gaussian 16 at Wed Jun 23 21:31:37 2021.
